 ---------------------------------------------------------------------
 #p cam-b3lyp 6-311G(D) opt=readfc freq=raman guess=read geom=allcheck
 ---------------------------------------------------------------------

 Structure from the checkpoint file:  "benzophenone.chk"
 -------------------
 Title Card Required
 -------------------
 Charge =  0 Multiplicity = 1

 SCF Done:  E(RCAM-B3LYP) =  -576.427427254     A.U. after    1 cycles
 SCF Done:  E(RCAM-B3LYP) =  -576.427458610     A.U. after   11 cycles
 SCF Done:  E(RCAM-B3LYP) =  -576.427549791     A.U. after   11 cycles
 SCF Done:  E(RCAM-B3LYP) =  -576.427700003     A.U. after   12 cycles
 SCF Done:  E(RCAM-B3LYP) =  -576.429019212     A.U. after   13 cycles
 SCF Done:  E(RCAM-B3LYP) =  -576.432111989     A.U. after   14 cycles
 SCF Done:  E(RCAM-B3LYP) =  -576.422888527     A.U. after   14 cycles
 SCF Done:  E(RCAM-B3LYP) =  -576.433168080     A.U. after   15 cycles
 SCF Done:  E(RCAM-B3LYP) =  -576.432998970     A.U. after   15 cycles
 SCF Done:  E(RCAM-B3LYP) =  -576.435842999     A.U. after   14 cycles
 SCF Done:  E(RCAM-B3LYP) =  -576.436710104     A.U. after   14 cycles
 SCF Done:  E(RCAM-B3LYP) =  -576.437249905     A.U. after   12 cycles
 SCF Done:  E(RCAM-B3LYP) =  -576.437614375     A.U. after   12 cycles
 SCF Done:  E(RCAM-B3LYP) =  -576.437683959     A.U. after   13 cycles
 SCF Done:  E(RCAM-B3LYP) =  -576.437692445     A.U. after   10 cycles
 SCF Done:  E(RCAM-B3LYP) =  -576.437693532     A.U. after    8 cycles
 SCF Done:  E(RCAM-B3LYP) =  -576.437693632     A.U. after    7 cycles
 SCF Done:  E(RCAM-B3LYP) =  -576.437693663     A.U. after    7 cycles
 Optimization completed.
    -- Stationary point found.
 Normal termination of Gaussian DV at Mon Jun  3 14:36:59 2024.

 ----------------------------------------------------------------------
 #P Geom=AllCheck Guess=TCheck SCRF=Check GenChk RCAM-B3LYP/6-311G(d) F
 req
 ----------------------------------------------------------------------

 Structure from the checkpoint file:  "benzophenone.chk"
 -------------------
 Title Card Required
 -------------------
 Charge =  0 Multiplicity = 1

 SCF Done:  E(RCAM-B3LYP) =  -576.437693663     A.U. after    1 cycles

 Isotropic polarizability for W=    0.000000      135.00 Bohr**3.
 FullF1:  Do perturbations      1 to       6.

                      1                      2                      3
                      A                      A                      A
 Frequencies --     41.9572                65.0211                95.9343
 Red. masses --      4.6950                 4.0142                 4.4627
 Frc consts  --      0.0049                 0.0100                 0.0242
 IR Inten    --      1.4093                 0.2224                 0.5532
 Raman Activ --      1.4173                 9.8707                 7.0195

                      4                      5                      6
                      A                      A                      A
 Frequencies --    139.8125               217.4820               239.2551
 Red. masses --      6.0624                 4.7174                 5.0122
 Frc consts  --      0.0698                 0.1315                 0.1690
 IR Inten    --      1.2247                 0.0525                 3.9462
 Raman Activ --      1.8826                 7.3758                 0.3499

                      7                      8                      9
                      A                      A                      A
 Frequencies --    292.4832               384.7550               420.4725
 Red. masses --      5.6968                 6.9476                 2.8962
 Frc consts  --      0.2871                 0.6060                 0.3017
 IR Inten    --      0.0457                 6.4263                 0.2657
 Raman Activ --      1.8797                 1.5074                 0.7519

                     10                     11                     12
                      A                      A                      A
 Frequencies --    431.1690               454.4646               456.6900
 Red. masses --      2.9646                 4.3983                 4.1479
 Frc consts  --      0.3247                 0.5352                 0.5097
 IR Inten    --      0.0002                 1.1938                 1.4951
 Raman Activ --      1.1915                 0.1666                 0.3880

                     13                     14                     15
                      A                      A                      A
 Frequencies --    581.1826               639.2747               641.7159
 Red. masses --      4.9011                 6.4014                 6.4208
 Frc consts  --      0.9754                 1.5413                 1.5579
 IR Inten    --      0.1759                 0.2468                 0.0335
 Raman Activ --      6.2102                 3.0714                 8.0729

                     16                     17                     18
                      A                      A                      A
 Frequencies --    663.3620               712.0655               724.7693
 Red. masses --      6.1630                 4.4921                 1.8416
 Frc consts  --      1.5979                 1.3420                 0.5700
 IR Inten    --     41.8459                 1.1840                13.1444
 Raman Activ --      1.3281                 0.2394                 0.8139

                     19                     20                     21
                      A                      A                      A
 Frequencies --    724.8481               743.6758               792.3517
 Red. masses --      1.3154                 4.5729                 1.9220
 Frc consts  --      0.4072                 1.4901                 0.7110
 IR Inten    --    142.3987                 2.6557                13.9040
 Raman Activ --      0.7231                 9.2966                 3.1213

                     22                     23                     24
                      A                      A                      A
 Frequencies --    847.7052               877.9309               883.1489
 Red. masses --      2.8724                 1.2574                 1.2462
 Frc consts  --      1.2161                 0.5710                 0.5727
 IR Inten    --      4.5034                 3.1097                 0.2085
 Raman Activ --      0.0833                 0.6886                 2.1095

                     25                     26                     27
                      A                      A                      A
 Frequencies --    952.7153               971.3613               978.4936
 Red. masses --      3.1969                 1.3755                 1.9746
 Frc consts  --      1.7096                 0.7646                 1.1139
 IR Inten    --     51.3472                 0.2560                20.5515
 Raman Activ --      2.8224                 0.4979                 0.5434

                     28                     29                     30
                      A                      A                      A
 Frequencies --   1004.3563              1009.8254              1027.0192
 Red. masses --      1.3743                 1.3540                 1.3404
 Frc consts  --      0.8168                 0.8135                 0.8330
 IR Inten    --      5.5532                 0.0726                 2.1061
 Raman Activ --      0.0426                 0.3531                 0.0450

                     31                     32                     33
                      A                      A                      A
 Frequencies --   1027.1879              1032.4226              1033.9329
 Red. masses --      1.3430                 6.1782                 5.6022
 Frc consts  --      0.8349                 3.8800                 3.5285
 IR Inten    --      0.0055                 1.8388                 0.0089
 Raman Activ --      2.2961                 4.6079                56.5293

                     34                     35                     36
                      A                      A                      A
 Frequencies --   1066.2528              1068.6630              1118.8389
 Red. masses --      2.2800                 1.9700                 1.5319
 Frc consts  --      1.5272                 1.3256                 1.1298
 IR Inten    --      0.4538                 4.4048                 4.0678
 Raman Activ --     35.4108                 1.6820                 0.0064

                     37                     38                     39
                      A                      A                      A
 Frequencies --   1122.4851              1187.2923              1191.6912
 Red. masses --      1.5247                 2.1774                 1.1660
 Frc consts  --      1.1319                 1.8084                 0.9756
 IR Inten    --      7.6138                 6.2258                 0.3594
 Raman Activ --      0.2195                35.6570                 2.8263

                     40                     41                     42
                      A                      A                      A
 Frequencies --   1192.9899              1213.4970              1219.0711
 Red. masses --      1.3872                 1.1272                 1.1797
 Frc consts  --      1.1633                 0.9779                 1.0329
 IR Inten    --      0.2845                25.4890                 0.2111
 Raman Activ --     27.5070                 2.2272                 5.0908

                     43                     44                     45
                      A                      A                      A
 Frequencies --   1311.9253              1336.1582              1340.2914
 Red. masses --      3.8065                 4.6148                 5.1843
 Frc consts  --      3.8600                 4.8542                 5.4870
 IR Inten    --    221.6806                 2.4537                86.4589
 Raman Activ --     16.1643                 1.2414                 6.2436

                     46                     47                     48
                      A                      A                      A
 Frequencies --   1369.7313              1370.8492              1504.1432
 Red. masses --      1.4428                 1.3885                 2.2879
 Frc consts  --      1.5949                 1.5374                 3.0498
 IR Inten    --     24.1134                 1.4171                26.9427
 Raman Activ --      0.2591                 2.3630                 0.1941

                     49                     50                     51
                      A                      A                      A
 Frequencies --   1504.5685              1548.8392              1553.8479
 Red. masses --      2.2848                 2.2276                 2.3481
 Frc consts  --      3.0474                 3.1485                 3.3403
 IR Inten    --      6.3435                 0.2063                 1.0879
 Raman Activ --      4.0215                 4.8395                 1.0763

                     52                     53                     54
                      A                      A                      A
 Frequencies --   1662.8986              1663.7419              1685.4921
 Red. masses --      5.7951                 5.6538                 5.7117
 Frc consts  --      9.4415                 9.2206                 9.5602
 IR Inten    --      9.5268                 2.2914                12.0061
 Raman Activ --      5.7096                 2.0109               122.6732

                     55                     56                     57
                      A                      A                      A
 Frequencies --   1686.8238              1780.3934              3190.3004
 Red. masses --      5.6732                12.5836                 1.0866
 Frc consts  --      9.5109                23.5011                 6.5162
 IR Inten    --     22.6047               184.0574                 0.0131
 Raman Activ --     57.2818                93.7612                58.0726

                     58                     59                     60
                      A                      A                      A
 Frequencies --   3190.4741              3201.0003              3201.6219
 Red. masses --      1.0867                 1.0899                 1.0902
 Frc consts  --      6.5172                 6.5797                 6.5839
 IR Inten    --      0.0960                 4.7602                16.1843
 Raman Activ --     41.1649               106.5433               152.0150

                     61                     62                     63
                      A                      A                      A
 Frequencies --   3211.1280              3212.3045              3220.2374
 Red. masses --      1.0935                 1.0938                 1.0958
 Frc consts  --      6.6435                 6.6502                 6.6951
 IR Inten    --     50.7927                 2.9916                 5.5055
 Raman Activ --     24.2653               188.7397                29.6788

                     64                     65                     66
                      A                      A                      A
 Frequencies --   3222.9863              3227.5135              3227.9174
 Red. masses --      1.0943                 1.0948                 1.0952
 Frc consts  --      6.6975                 6.7195                 6.7233
 IR Inten    --     13.5507                13.4220                 0.2974
 Raman Activ --    156.0287                64.6634               293.9950

 - Thermochemistry -
 -------------------
 Temperature   298.150 Kelvin.  Pressure      1.00000 Atm.
 Atom     1 has atomic number  6 and mass  12.00000

 Molecular mass:   182.07317 amu.
 Principal axes and moments of inertia in atomic units:
                                 1                 2                 3
     Eigenvalues --         1041.441274       4381.278887       5125.763029
           X                   0.999996         -0.000001         -0.002812
           Y                   0.000001          1.000000         -0.000011
           Z                   0.002812          0.000011          0.999996
 This molecule is an asymmetric top.
 Rotational symmetry number  1.
 Warning -- assumption of classical behavior for rotation
           may cause significant error
 Rotational temperatures (Kelvin)      0.08317     0.01977     0.01690
 Rotational constants (GHZ):           1.73293     0.41192     0.35209
 Zero-point vibrational energy     507903.4 (Joules/Mol)
                                  121.39182 (Kcal/Mol)
 Warning -- explicit consideration of  13 degrees of freedom as
           vibrations may cause significant error
 Vibrational temperatures:     60.37    93.55   138.03   201.16   312.91
          (Kelvin)            344.23   420.82   553.58   604.97   620.36
                              653.87   657.08   836.19   919.77   923.29
                              954.43  1024.50  1042.78  1042.89  1069.98
                             1140.02  1219.66  1263.15  1270.65  1370.74
                             1397.57  1407.83  1445.04  1452.91  1477.65
                             1477.89  1485.43  1487.60  1534.10  1537.57
                             1609.76  1615.01  1708.25  1714.58  1716.45
                             1745.95  1753.97  1887.57  1922.43  1928.38
                             1970.74  1972.35  2164.13  2164.74  2228.43
                             2235.64  2392.54  2393.75  2425.05  2426.96
                             2561.59  4590.13  4590.38  4605.53  4606.42
                             4620.10  4621.79  4633.20  4637.16  4643.67
                             4644.25

 Zero-point correction=                           0.193450 (Hartree/Particle)
 Thermal correction to Energy=                    0.204060
 Thermal correction to Enthalpy=                  0.205004
 Thermal correction to Gibbs Free Energy=         0.155930
 Sum of electronic and zero-point Energies=           -576.244243
 Sum of electronic and thermal Energies=              -576.233634
 Sum of electronic and thermal Enthalpies=            -576.232690
 Sum of electronic and thermal Free Energies=         -576.281763

                     E (Thermal)             CV                S
                      KCal/Mol        Cal/Mol-Kelvin    Cal/Mol-Kelvin
 Total                  128.049             41.997            103.284
 Electronic               0.000              0.000              0.000
 Translational            0.889              2.981             41.504
 Rotational               0.889              2.981             31.526
 Vibrational            126.272             36.035             30.254
 Vibration     1          0.595              1.980              5.164
 Vibration     2          0.597              1.971              4.299
 Vibration     3          0.603              1.952              3.535
 Vibration     4          0.615              1.914              2.806
 Vibration     5          0.646              1.814              1.980
 Vibration     6          0.657              1.780              1.808
 Vibration     7          0.688              1.688              1.460
 Vibration     8          0.754              1.503              1.020
 Vibration     9          0.783              1.426              0.890
 Vibration    10          0.792              1.402              0.855
 Vibration    11          0.813              1.351              0.782
 Vibration    12          0.815              1.346              0.776
 Vibration    13          0.938              1.072              0.483

 Optimization completed.
    -- Stationary point found.
 Normal termination of Gaussian DV at Mon Jun  3 14:39:17 2024.

 -------------------------------------------------------------
 #p cam-b3lyp 6-311G(D) geom=allcheck td=nstates=10 guess=read
 -------------------------------------------------------------

 Structure from the checkpoint file:  "TD_benzophenone.chk"
 -------------------
 Title Card Required
 -------------------
 Charge =  0 Multiplicity = 1

                         Standard orientation:
 ---------------------------------------------------------------------
 Center     Atomic      Atomic             Coordinates (Angstroms)
 Number     Number       Type             X           Y           Z
 ---------------------------------------------------------------------
      1          6           0        3.794150   -0.894182    0.123905
      2          6           0        2.689555   -1.518086    0.685186
      3          6           0        1.443907   -0.908829    0.629831
      4          6           0        1.298754    0.337906    0.024213
      5          6           0        2.419675    0.969533   -0.513329
      6          6           0        3.657551    0.351925   -0.476406
      7          1           0        4.765263   -1.375526    0.160230
      8          1           0        2.797170   -2.481631    1.170460
      9          1           0        0.588458   -1.395112    1.082591
     10          1           0        2.298241    1.952278   -0.952244
     11          1           0        4.521197    0.844504   -0.908778
     12          6           0       -2.689405   -1.518301   -0.684974
     13          6           0       -3.794131   -0.894270   -0.124093
     14          6           0       -3.657679    0.351988    0.475942
     15          6           0       -2.419820    0.969619    0.512985
     16          6           0       -1.298772    0.337879   -0.024163
     17          6           0       -1.443779   -0.909011   -0.629498
     18          1           0       -2.796900   -2.481971   -1.170026
     19          1           0       -4.765229   -1.375637   -0.160507
     20          1           0       -4.521424    0.844660    0.908011
     21          1           0       -2.298474    1.952470    0.951683
     22          1           0       -0.588233   -1.395421   -1.081925
     23          6           0       -0.000018    1.082575    0.000117
     24          8           0        0.000000    2.294864    0.000276
 ---------------------------------------------------------------------

 SCF Done:  E(RCAM-B3LYP) =  -576.437693663     A.U. after    1 cycles

 Excitation energies and oscillator strengths:

 Excited State   1:      Singlet-A      3.8982 eV  318.06 nm  f=0.0009  <S**2>=0.000
      44 -> 49         0.47207
      44 -> 55        -0.14057
      48 -> 49         0.48208
      48 -> 55        -0.12713
 This state for optimization and/or second-order correction.
 Total Energy, E(TD-HF/TD-DFT) =  -576.294437738

 Excited State   2:      Singlet-A      5.1213 eV  242.09 nm  f=0.0170  <S**2>=0.000
      44 -> 49         0.15173
      44 -> 52         0.10024
      45 -> 51         0.21071
      46 -> 50         0.23705
      47 -> 49         0.54682
      48 -> 49        -0.15247
      48 -> 52        -0.17175

 Excited State   3:      Singlet-A      5.1720 eV  239.72 nm  f=0.0263  <S**2>=0.000
      44 -> 50        -0.11422
      45 -> 49         0.47596
      46 -> 49        -0.31327
      46 -> 52        -0.20155
      47 -> 51         0.22499
      48 -> 50         0.22890

 Excited State   4:      Singlet-A      5.3398 eV  232.19 nm  f=0.3639  <S**2>=0.000
      45 -> 49         0.33886
      46 -> 49         0.58121
      47 -> 50        -0.11877
      48 -> 51         0.10761

 Excited State   5:      Singlet-A      5.5253 eV  224.39 nm  f=0.0421  <S**2>=0.000
      44 -> 49         0.45371
      46 -> 51        -0.11913
      47 -> 49        -0.21035
      48 -> 49        -0.44373

 Excited State   6:      Singlet-A      6.2858 eV  197.25 nm  f=0.0199  <S**2>=0.000
      44 -> 50         0.13446
      45 -> 49        -0.28366
      45 -> 52        -0.10919
      46 -> 49         0.16357
      46 -> 52        -0.14107
      47 -> 51         0.16573
      48 -> 50         0.53673

 Excited State   7:      Singlet-A      6.3966 eV  193.83 nm  f=0.0280  <S**2>=0.000
      44 -> 50        -0.24499
      44 -> 51         0.12250
      45 -> 49        -0.24132
      46 -> 52        -0.21227
      47 -> 50        -0.24595
      47 -> 51         0.12131
      48 -> 51         0.46833

 Excited State   8:      Singlet-A      6.4050 eV  193.58 nm  f=0.1107  <S**2>=0.000
      45 -> 50         0.11774
      45 -> 51        -0.27925
      46 -> 50        -0.34346
      46 -> 51        -0.11293
      47 -> 49         0.38469
      47 -> 52         0.12662
      47 -> 55        -0.13187
      48 -> 52         0.27536

 Excited State   9:      Singlet-A      6.5888 eV  188.17 nm  f=0.2305  <S**2>=0.000
      44 -> 50         0.40877
      44 -> 51        -0.16015
      45 -> 52         0.27455
      46 -> 49        -0.14435
      47 -> 50        -0.34496
      47 -> 51        -0.21435
      48 -> 51         0.12822

 Excited State  10:      Singlet-A      6.6249 eV  187.15 nm  f=0.0107  <S**2>=0.000
      44 -> 49        -0.12091
      45 -> 50         0.41638
      46 -> 50         0.19351
      46 -> 51        -0.34316
      47 -> 52        -0.28936
      48 -> 49         0.10834
      48 -> 52         0.14167
      48 -> 55        -0.11743
 NIn3Su will process     10 difference densitie(s) at one time.
 There are a total of      544968 grid points.

 dCT charge transfer diagnostic using the unrelaxed electronic density difference

 State    w(eV)              R+(Ang)                       R-(Ang)               D(Ang)  QP(a.u.)   QP+QM
                        x         y         z         x         y         z
    1       3.898    -0.000     0.723     0.000     0.000     1.845     0.000     1.121    0.743   7.6D-07
    2       5.121    -0.002     0.682     0.000    -0.008    -0.326    -0.000     1.008    0.414   6.3D-07
    3       5.172     0.002     0.645     0.000     0.008    -0.229     0.000     0.874    0.384   1.1D-07
    4       5.340    -0.000     1.138     0.000     0.001    -0.134     0.000     1.272    0.549   6.3D-07
    5       5.525    -0.001     0.807     0.000     0.001    -0.054     0.000     0.861    0.437   6.6D-07
    6       6.286    -0.003    -0.089    -0.000     0.004     1.218     0.000     1.307    0.443   7.7D-07
    7       6.397    -0.054     0.092    -0.003     0.021     1.487     0.002     1.397    0.409   2.5D-07
    8       6.405     0.013     0.946     0.004    -0.105    -0.327    -0.004     1.278    0.277   4.5D-07
    9       6.589    -0.002    -0.358     0.000     0.005     1.089     0.000     1.447    0.363   8.1D-07
   10       6.625     0.002     0.004    -0.000    -0.017    -0.105    -0.000     0.111    0.187  -1.3D-07

 The electronic state is 1-A.
 Alpha  occ. eigenvalues --      -19.17861     -10.33736     -10.26087     -10.26085     -10.25968
 Alpha  occ. eigenvalues --      -10.25968     -10.25873     -10.25872     -10.25591     -10.25591
 Alpha  occ. eigenvalues --      -10.25482     -10.25482     -10.25422     -10.25422      -1.12937
 Alpha  occ. eigenvalues --       -0.95926      -0.95407      -0.86553      -0.84375      -0.84123
 Alpha  occ. eigenvalues --       -0.83765      -0.73699      -0.70025      -0.69578      -0.68451
 Alpha  occ. eigenvalues --       -0.64028      -0.61326      -0.58308      -0.54998      -0.54077
 Alpha  occ. eigenvalues --       -0.53356      -0.52357      -0.51220      -0.50262      -0.50229
 Alpha  occ. eigenvalues --       -0.49799      -0.47472      -0.45177      -0.43776      -0.43352
 Alpha  occ. eigenvalues --       -0.42947      -0.41650      -0.41510      -0.32988      -0.32338
 Alpha  occ. eigenvalues --       -0.32003      -0.31913      -0.31080
 Alpha virt. eigenvalues --       -0.02331       0.02278       0.02964       0.03639       0.08091
 Alpha virt. eigenvalues --        0.08960       0.10425       0.11271       0.12069       0.12877
 Alpha virt. eigenvalues --        0.14066       0.16163       0.16537       0.16691       0.17405

 Mulliken charges:
               1
     1  C   -0.188396
     2  C   -0.207554
     3  C   -0.203234
     4  C   -0.093249
     5  C   -0.171182
     6  C   -0.203798
     7  H    0.208777
     8  H    0.208160
     9  H    0.233427
    10  H    0.227588
    11  H    0.209781
    12  C   -0.207559
    13  C   -0.188390
    14  C   -0.203795
    15  C   -0.171172
    16  C   -0.093304
    17  C   -0.203226
    18  H    0.208161
    19  H    0.208778
    20  H    0.209783
    21  H    0.227600
    22  H    0.233438
    23  C    0.242326
    24  O   -0.282961
 Sum of Mulliken charges =  -0.00000

 Dipole moment (field-independent basis, Debye):
    X=             -0.0002    Y=             -2.9974    Z=             -0.0004  Tot=              2.9974
 Quadrupole moment (field-independent basis, Debye-Ang):
   XX=            -65.5401   YY=            -82.6477   ZZ=            -82.9406
   XY=             -0.0008   XZ=             -2.6138   YZ=             -0.0022

 Normal termination of Gaussian DV at Mon Jun  3 14:40:33 2024.
