 Gaussian 16, Revision B.01,
 Gaussian 16:  EM64M-G16RevB.01 20-Dec-2017

 --------------------------
 #p opt freq b3lyp/6-31g(d)
 --------------------------

 -------------------
 Title Card Required
 -------------------
 Symbolic Z-matrix:
 Charge =  0 Multiplicity = 1

 SCF Done:  E(RB3LYP) =  -79.8270656380     A.U. after    7 cycles
 SCF Done:  E(RB3LYP) =  -79.8302862008     A.U. after    8 cycles
 SCF Done:  E(RB3LYP) =  -79.8304124089     A.U. after    6 cycles
 SCF Done:  E(RB3LYP) =  -79.8304207439     A.U. after    6 cycles
 Optimization completed.
    -- Stationary point found.
 Normal termination of Gaussian 16 at Tue May 14 14:05:22 2024.

 --------------------------------------------------------------------
 #P Geom=AllCheck Guess=TCheck SCRF=Check GenChk RB3LYP/6-31G(d) Freq
 --------------------------------------------------------------------

 Structure from the checkpoint file:  "ethane.chk"
 -------------------
 Title Card Required
 -------------------
 Charge =  0 Multiplicity = 1

                         Standard orientation:
 ---------------------------------------------------------------------
 Center     Atomic      Atomic             Coordinates (Angstroms)
 Number     Number       Type             X           Y           Z
 ---------------------------------------------------------------------
      1          6           0       -0.000000   -0.000000    0.765306
      2          1           0       -0.510273    0.884352    1.164490
      3          1           0        1.021008   -0.000267    1.164490
      4          1           0       -0.510735   -0.884085    1.164490
      5          6           0        0.000000    0.000000   -0.765306
      6          1           0        0.510735   -0.884085   -1.164490
      7          1           0       -1.021008   -0.000267   -1.164490
      8          1           0        0.510273    0.884352   -1.164490
 ---------------------------------------------------------------------

 SCF Done:  E(RB3LYP) =  -79.8304207439     A.U. after    1 cycles

 The electronic state is 1-A1.
 Alpha  occ. eigenvalues --  -10.17241 -10.17220  -0.74738  -0.61195  -0.43005
 Alpha  occ. eigenvalues --   -0.43005  -0.36285  -0.34006  -0.34006
 Alpha virt. eigenvalues --    0.10476   0.15600   0.16364   0.16364   0.19021
 Alpha virt. eigenvalues --    0.19021   0.24251   0.51316   0.54375   0.54375
 Alpha virt. eigenvalues --    0.63685   0.63685   0.66845   0.88293   0.88293

 Mulliken charges:
               1
     1  C   -0.432798
     2  H    0.144266
     3  H    0.144266
     4  H    0.144266
     5  C   -0.432798
     6  H    0.144266
     7  H    0.144266
     8  H    0.144266
 Sum of Mulliken charges =  -0.00000

 Dipole moment (field-independent basis, Debye):
    X=              0.0000    Y=             -0.0000    Z=              0.0000  Tot=              0.0000
 Quadrupole moment (field-independent basis, Debye-Ang):
   XX=            -14.7148   YY=            -14.7148   ZZ=            -15.2306
   XY=             -0.0000   XZ=              0.0000   YZ=             -0.0000

  Exact polarizability:  22.418  -0.000  22.418  -0.000  -0.000  23.940
 Approx polarizability:  28.754   0.000  28.754  -0.000  -0.000  27.513

                      1                      2                      3
                     A1                      E                      E
 Frequencies --    315.0727               833.0954               833.0954
 Red. masses --      1.0078                 1.0576                 1.0576
 Frc consts  --      0.0589                 0.4325                 0.4325
 IR Inten    --      0.0000                 4.6722                 4.6722

                      4                      5                      6
                     A1                      E                      E
 Frequencies --   1009.8153              1235.9393              1235.9394
 Red. masses --      3.2487                 1.4650                 1.4650
 Frc consts  --      1.9518                 1.3185                 1.3185
 IR Inten    --      0.0000                 0.0000                 0.0000

                      7                      8                      9
                     A2                     A1                      E
 Frequencies --   1433.5788              1454.8011              1532.2241
 Red. masses --      1.1980                 1.2572                 1.0198
 Frc consts  --      1.4506                 1.5677                 1.4106
 IR Inten    --      0.2599                 0.0000                 0.0000

                     10                     11                     12
                      E                      E                      E
 Frequencies --   1532.2241              1537.8785              1537.8787
 Red. masses --      1.0198                 1.0619                 1.0619
 Frc consts  --      1.4106                 1.4798                 1.4798
 IR Inten    --      0.0000                 7.4659                 7.4659

                     13                     14                     15
                     A1                     A2                      E
 Frequencies --   3046.4618              3047.3612              3097.7863
 Red. masses --      1.0367                 1.0343                 1.1020
 Frc consts  --      5.6689                 5.6592                 6.2308
 IR Inten    --      0.0000                59.0503                 0.0000

                     16                     17                     18
                      E                      E                      E
 Frequencies --   3097.7863              3122.1439              3122.1439
 Red. masses --      1.1020                 1.1030                 1.1030
 Frc consts  --      6.2308                 6.3350                 6.3350
 IR Inten    --      0.0000                73.8552                73.8539

 - Thermochemistry -
 -------------------
 Temperature   298.150 Kelvin.  Pressure   1.00000 Atm.
 Atom     1 has atomic number  6 and mass  12.00000

 Molecular mass:    30.04695 amu.
 Principal axes and moments of inertia in atomic units:
                           1         2         3
     Eigenvalues --    22.51086  90.73490  90.73490
           X           -0.00000   0.22424   0.97453
           Y           -0.00000   0.97453  -0.22424
           Z            1.00000   0.00000   0.00000
 This molecule is a prolate symmetric top.
 Rotational symmetry number  6.
 Rotational temperatures (Kelvin)      3.84765     0.95458     0.95458
 Rotational constants (GHZ):          80.17202    19.89027    19.89027
 Zero-point vibrational energy     197534.7 (Joules/Mol)
                                   47.21193 (Kcal/Mol)
 Warning -- explicit consideration of   1 degrees of freedom as
           vibrations may cause significant error
 Vibrational temperatures:    453.32  1198.64  1198.64  1452.90  1778.24
          (Kelvin)           1778.24  2062.60  2093.13  2204.53  2204.53
                             2212.66  2212.66  4383.18  4384.47  4457.02
                             4457.02  4492.07  4492.07

 Zero-point correction=                           0.075237 (Hartree/Particle)
 Thermal correction to Energy=                    0.078704
 Thermal correction to Enthalpy=                  0.079648
 Thermal correction to Gibbs Free Energy=         0.053820
 Sum of electronic and zero-point Energies=            -79.755184
 Sum of electronic and thermal Energies=               -79.751717
 Sum of electronic and thermal Enthalpies=             -79.750773
 Sum of electronic and thermal Free Energies=          -79.776601

                     E (Thermal)             CV                S
                      KCal/Mol        Cal/Mol-Kelvin    Cal/Mol-Kelvin
 Total                   49.387              9.981             54.360
 Electronic               0.000              0.000              0.000
 Translational            0.889              2.981             36.134
 Rotational               0.889              2.981             16.295
 Vibrational             47.610              4.020              1.931
 Vibration     1          0.702              1.645              1.336

 Optimization completed.
    -- Stationary point found.
 Normal termination of Gaussian 16 at Tue May 14 14:05:31 2024.
