 Gaussian 16, Revision B.01,
 Gaussian 16:  EM64M-G16RevB.01 20-Dec-2017

 ---------------------------------
 #p td=(nstates=25) b3lyp/6-31g(d)
 ---------------------------------

 -------------------
 Title Card Required
 -------------------
 Symbolic Z-matrix:
 Charge =  0 Multiplicity = 1

                         Standard orientation:
 ---------------------------------------------------------------------
 Center     Atomic      Atomic             Coordinates (Angstroms)
 Number     Number       Type             X           Y           Z
 ---------------------------------------------------------------------
      1          6           0        0.000000    0.000000    0.765306
      2          1           0       -0.510273    0.884352    1.164490
      3          1           0        1.021008   -0.000267    1.164490
      4          1           0       -0.510735   -0.884085    1.164490
      5          6           0        0.000000    0.000000   -0.765306
      6          1           0        0.510735   -0.884085   -1.164490
      7          1           0       -1.021008   -0.000267   -1.164490
      8          1           0        0.510273    0.884352   -1.164490
 ---------------------------------------------------------------------

 SCF Done:  E(RB3LYP) =  -79.8304207439     A.U. after    8 cycles

 Excitation energies and oscillator strengths:

 Excited State   1:      Singlet-E     10.9033 eV  113.71 nm  f=0.0000  <S**2>=0.000
       9 -> 10         0.70631
 This state for optimization and/or second-order correction.
 Total Energy, E(TD-HF/TD-DFT) =  -79.4297322665
 Copying the excited state density for this state as the 1-particle RhoCI density.

 Excited State   2:      Singlet-E     10.9033 eV  113.71 nm  f=0.0000  <S**2>=0.000
       8 -> 10         0.70631

 Excited State   3:      Singlet-A1    11.5713 eV  107.15 nm  f=0.0000  <S**2>=0.000
       7 -> 10         0.69995

 Excited state symmetry could not be determined.
 Excited State   4:      Singlet-?Sym   12.2640 eV  101.10 nm  f=0.0000  <S**2>=0.000
       8 -> 12         0.49811
       9 -> 13        -0.49811

 Excited State   5:      Singlet-E     12.3417 eV  100.46 nm  f=0.0410  <S**2>=0.000
       7 -> 12        -0.12036
       8 -> 12        -0.23934
       9 -> 11         0.60609
       9 -> 13        -0.23934

 Excited State   6:      Singlet-E     12.3417 eV  100.46 nm  f=0.0410  <S**2>=0.000
       7 -> 13        -0.12036
       8 -> 11         0.60609
       8 -> 13         0.23934
       9 -> 12        -0.23934

 Excited state symmetry could not be determined.
 Excited State   7:      Singlet-?Sym   12.6513 eV   98.00 nm  f=0.1907  <S**2>=0.000
       7 -> 13        -0.30148
       8 -> 11        -0.35799
       8 -> 13         0.37052
       9 -> 12        -0.37052

 Excited state symmetry could not be determined.
 Excited State   8:      Singlet-?Sym   12.6513 eV   98.00 nm  f=0.1907  <S**2>=0.000
       7 -> 12         0.30148
       8 -> 12         0.37052
       9 -> 11         0.35799
       9 -> 13         0.37052

 Excited State   9:      Singlet-A2    12.8100 eV   96.79 nm  f=0.0014  <S**2>=0.000
       7 -> 11         0.59244
       8 -> 13         0.27106
       9 -> 12         0.27106

 Excited state symmetry could not be determined.
 Excited State  10:      Singlet-?Sym   12.9462 eV   95.77 nm  f=0.0000  <S**2>=0.000
       8 -> 14         0.49340
       9 -> 15         0.49340

 Excited State  11:      Singlet-E     12.9853 eV   95.48 nm  f=0.0403  <S**2>=0.000
       5 -> 10         0.30558
       7 -> 12         0.56018
       8 -> 12        -0.16884
       9 -> 13        -0.16884
       9 -> 16         0.17580

 Excited State  12:      Singlet-E     12.9853 eV   95.48 nm  f=0.0403  <S**2>=0.000
       6 -> 10         0.30558
       7 -> 13         0.56018
       8 -> 13         0.16884
       8 -> 16         0.17580
       9 -> 12        -0.16884

 Excited state symmetry could not be determined.
 Excited State  13:      Singlet-?Sym   13.2662 eV   93.46 nm  f=0.9642  <S**2>=0.000
       7 -> 11        -0.38459
       8 -> 13         0.41717
       9 -> 12         0.41718

 Excited state symmetry could not be determined.
 Excited State  14:      Singlet-?Sym   13.3178 eV   93.10 nm  f=0.0000  <S**2>=0.000
       7 -> 15        -0.14768
       8 -> 15         0.48808
       9 -> 14         0.48808

 Excited state symmetry could not be determined.
 Excited State  15:      Singlet-?Sym   13.3178 eV   93.10 nm  f=0.0000  <S**2>=0.000
       7 -> 14         0.14768
       8 -> 14         0.48808
       9 -> 15        -0.48808

 Excited State  16:      Singlet-E     13.5067 eV   91.79 nm  f=0.0000  <S**2>=0.000
       7 -> 14         0.69022
       8 -> 14        -0.10367
       9 -> 15         0.10367

 Excited State  17:      Singlet-E     13.5067 eV   91.79 nm  f=0.0000  <S**2>=0.000
       7 -> 15         0.69022
       8 -> 15         0.10367
       9 -> 14         0.10367

 Excited State  18:      Singlet-E     13.5530 eV   91.48 nm  f=0.4124  <S**2>=0.000
       5 -> 10         0.62729
       7 -> 12        -0.21476
       8 -> 12         0.13681
       9 -> 13         0.13681
       9 -> 16        -0.11956

 Excited State  19:      Singlet-E     13.5530 eV   91.48 nm  f=0.4124  <S**2>=0.000
       6 -> 10         0.62729
       7 -> 13        -0.21476
       8 -> 13        -0.13681
       8 -> 16        -0.11956
       9 -> 12         0.13681

 Excited state symmetry could not be determined.
 Excited State  20:      Singlet-?Sym   13.7089 eV   90.44 nm  f=0.0000  <S**2>=0.000
       5 -> 12         0.15469
       6 -> 13         0.15469
       8 -> 15        -0.46923
       9 -> 14         0.46923

 Excited State  21:      Singlet-E     14.5358 eV   85.30 nm  f=0.1242  <S**2>=0.000
       5 -> 15        -0.14061
       6 -> 14         0.14061
       7 -> 12        -0.14870
       9 -> 16         0.65124

 Excited State  22:      Singlet-E     14.5358 eV   85.30 nm  f=0.1242  <S**2>=0.000
       5 -> 14         0.14061
       6 -> 15         0.14061
       7 -> 13        -0.14870
       8 -> 16         0.65124

 Excited state symmetry could not be determined.
 Excited State  23:      Singlet-?Sym   14.7199 eV   84.23 nm  f=0.0000  <S**2>=0.000
       5 -> 13        -0.49336
       6 -> 12         0.49336

 Excited State  24:      Singlet-E     14.7839 eV   83.86 nm  f=0.0000  <S**2>=0.000
       5 -> 11         0.70006

 Excited State  25:      Singlet-E     14.7839 eV   83.86 nm  f=0.0000  <S**2>=0.000
       6 -> 11         0.70006

 The electronic state is 1-A1.
 Alpha  occ. eigenvalues --  -10.17241 -10.17220  -0.74738  -0.61195  -0.43005
 Alpha  occ. eigenvalues --   -0.43005  -0.36285  -0.34006  -0.34006
 Alpha virt. eigenvalues --    0.10476   0.15600   0.16365   0.16365   0.19021
 Alpha virt. eigenvalues --    0.19021   0.24251   0.51316   0.54375   0.54375
 Alpha virt. eigenvalues --    0.63685   0.63685   0.66845   0.88293   0.88293

 Mulliken charges:
               1
     1  C   -0.432798
     2  H    0.144266
     3  H    0.144266
     4  H    0.144266
     5  C   -0.432798
     6  H    0.144266
     7  H    0.144266
     8  H    0.144266
 Sum of Mulliken charges =  -0.00000

 Dipole moment (field-independent basis, Debye):
    X=             -0.0000    Y=              0.0000    Z=             -0.0000  Tot=              0.0000
 Quadrupole moment (field-independent basis, Debye-Ang):
   XX=            -14.7148   YY=            -14.7148   ZZ=            -15.2306
   XY=             -0.0000   XZ=             -0.0000   YZ=             -0.0000

 1\1\GINC-RYANS-IMAC\SP\RB3LYP TD-FC\6-31G(d)\C2H6\RYAN\14-Jun-2024\0\\
 #p td=(nstates=25) b3lyp/6-31g(d)\\Title Card Required\\0,1\C,0,0.,0.,
 0.765306\H,0,-0.510273,0.884352,1.16449\H,0,1.021008,-0.000267,1.16449
 \H,0,-0.510735,-0.884085,1.16449\C,0,0.,0.,-0.765306\H,0,0.510735,-0.8
 84085,-1.16449\H,0,-1.021008,-0.000267,-1.16449\H,0,0.510273,0.884352,
 -1.16449\\Version=EM64M-G16RevB.01\State=1-A1\HF=-79.8304207\RMSD=5.10
 6e-09\PG=D03 [C3(C1.C1),X(H6)]\\@

 Normal termination of Gaussian 16 at Fri Jun 14 13:56:42 2024.
