 Gaussian 16, Revision B.01,
 Gaussian 16:  EM64M-G16RevB.01 20-Dec-2017

 -------------------------------------------
 #p b3lyp/6-31g(d) guess=read td=(nstates=5)
 -------------------------------------------

 -------------------
 Title Card Required
 -------------------
 Symbolic Z-matrix:
 Charge =  0 Multiplicity = 1

                         Standard orientation:
 ---------------------------------------------------------------------
 Center     Atomic      Atomic             Coordinates (Angstroms)
 Number     Number       Type             X           Y           Z
 ---------------------------------------------------------------------
      1          6           0        0.000000    0.000000    0.765306
      2          1           0       -0.510273    0.884352    1.164490
      3          1           0        1.021008   -0.000267    1.164490
      4          1           0       -0.510735   -0.884085    1.164490
      5          6           0        0.000000    0.000000   -0.765306
      6          1           0        0.510735   -0.884085   -1.164490
      7          1           0       -1.021008   -0.000267   -1.164490
      8          1           0        0.510273    0.884352   -1.164490
 ---------------------------------------------------------------------

 SCF Done:  E(RB3LYP) =  -79.8304207439     A.U. after    2 cycles

 Excitation energies and oscillator strengths:

 Excited State   1:      Singlet-E     10.9033 eV  113.71 nm  f=0.0000  <S**2>=0.000
       9 -> 10         0.70497
 This state for optimization and/or second-order correction.
 Total Energy, E(TD-HF/TD-DFT) =  -79.4297322635
 Copying the excited state density for this state as the 1-particle RhoCI density.

 Excited State   2:      Singlet-E     10.9033 eV  113.71 nm  f=0.0000  <S**2>=0.000
       8 -> 10         0.70497

 Excited State   3:      Singlet-A1    11.5713 eV  107.15 nm  f=0.0000  <S**2>=0.000
       7 -> 10         0.69995

 Excited state symmetry could not be determined.
 Excited State   4:      Singlet-?Sym   12.2640 eV  101.10 nm  f=0.0000  <S**2>=0.000
       8 -> 13         0.49811
       9 -> 12         0.49811

 Excited State   5:      Singlet-E     12.3418 eV  100.46 nm  f=0.0408  <S**2>=0.000
       7 -> 13        -0.12007
       8 -> 13        -0.23764
       9 -> 11         0.60483
       9 -> 12         0.23764

 The electronic state is 1-A1.
 Alpha  occ. eigenvalues --  -10.17241 -10.17220  -0.74738  -0.61195  -0.43005
 Alpha  occ. eigenvalues --   -0.43005  -0.36285  -0.34006  -0.34006
 Alpha virt. eigenvalues --    0.10476   0.15600   0.16365   0.16365   0.19021
 Alpha virt. eigenvalues --    0.19021   0.24251   0.51316   0.54375   0.54375
 Alpha virt. eigenvalues --    0.63685   0.63685   0.66845   0.88293   0.88293

 Mulliken charges:
               1
     1  C   -0.432798
     2  H    0.144266
     3  H    0.144266
     4  H    0.144266
     5  C   -0.432798
     6  H    0.144266
     7  H    0.144266
     8  H    0.144266
 Sum of Mulliken charges =   0.00000

 Dipole moment (field-independent basis, Debye):
    X=             -0.0000    Y=              0.0000    Z=             -0.0000  Tot=              0.0000
 Quadrupole moment (field-independent basis, Debye-Ang):
   XX=            -14.7148   YY=            -14.7148   ZZ=            -15.2306
   XY=             -0.0000   XZ=             -0.0000   YZ=              0.0000

 1\1\GINC-RYANS-IMAC\SP\RB3LYP TD-FC\6-31G(d)\C2H6\RYAN\17-May-2024\0\\
 #p b3lyp/6-31g(d) guess=read td=(nstates=5)\\Title Card Required\\0,1\
 C,0,0.,0.,0.765306\H,0,-0.510273,0.884352,1.16449\H,0,1.021008,-0.0002
 67,1.16449\H,0,-0.510735,-0.884085,1.16449\C,0,0.,0.,-0.765306\H,0,0.5
 10735,-0.884085,-1.16449\H,0,-1.021008,-0.000267,-1.16449\H,0,0.510273
 ,0.884352,-1.16449\\Version=EM64M-G16RevB.01\State=1-A1\HF=-79.8304207
 \RMSD=1.684e-09\PG=D03 [C3(C1.C1),X(H6)]\\@

 Normal termination of Gaussian 16 at Fri May 17 16:30:58 2024.
